Program Version,EnergyPlus, Version 22.2.0-e09063c5d2, YMD=2022.11.10 21:26
1,5,Environment Title[],Latitude[deg],Longitude[deg],Time Zone[],Elevation[m]
2,8,Day of Simulation[],Month[],Day of Month[],DST Indicator[1=yes 0=no],Hour[],StartMinute[],EndMinute[],DayType
3,5,Cumulative Day of Simulation[],Month[],Day of Month[],DST Indicator[1=yes 0=no],DayType  ! When Daily Meters Requested
4,2,Cumulative Days of Simulation[],Month[]  ! When Monthly Meters Requested
5,1,Cumulative Days of Simulation[] ! When Run Period Meters Requested
6,1,Calendar Year of Simulation[] ! When Annual Meters Requested
13,9,Electricity:Facility [J] !Monthly [Value,Min,Day,Hour,Minute,Max,Day,Hour,Minute]
1057,9,Cooling:Electricity [J] !Monthly [Value,Min,Day,Hour,Minute,Max,Day,Hour,Minute]
1096,9,Heating:Electricity [J] !Monthly [Value,Min,Day,Hour,Minute,Max,Day,Hour,Minute]
End of Data Dictionary
1,PHOENIX SKY HARBOR INTL AP ANN HTG 99.6% CONDNS DB,  37.62,-122.40,  -8.00,   2.00
4,1,12
13,339659878.488611,578247.6505791113,21, 4, 3,1739835.592659954,21,19, 3
1057,0.0,0.0,21, 1, 3,0.0,21, 1, 3
1096,197961896.07188192,383482.7253902401,21,21,60,430988.9197061077,21,14,45
1,PHOENIX SKY HARBOR INTL AP ANN CLG .4% CONDNS DB=>MWB,  37.62,-122.40,  -8.00,   2.00
4,1, 7
13,242091969.713331,255825.18090469274,21, 4,60,1638755.9552552043,21,20,24
1057,120259368.59545043,112870.32860603908,21, 5,60,410672.2259063843,21,16, 6
1096,0.0,0.0,21, 1, 3,0.0,21, 1, 3
1,ANNUAL,  37.62,-122.40,  -8.00,   2.00
4,31, 1
13,5792126429.434002,163127.10284771345, 1,15,60,1590548.5055508632,27, 8, 6
1057,0.0,0.0, 1, 1, 3,0.0, 1, 1, 3
1096,1830913166.06912,0.0, 3,14,54,372807.99535425805, 8, 8, 3
4,59, 2
13,4587298842.109448,155801.34896619403,16, 1, 3,-99999999999999.0,27, 8, 6
1057,1119403.842641344,99999999999999.0, 1, 1, 3,23890.876426497918,15,17, 6
1096,1102710441.7369275,99999999999999.0, 3,14,54,-99999999999999.0, 8, 8, 3
4,90, 3
13,4648774185.408776,135461.71296022175,13, 1, 3,-99999999999999.0,27, 8, 6
1057,9279941.237349471,99999999999999.0, 1, 1, 3,58569.878643453354,12,17, 9
1096,916106483.7565018,99999999999999.0, 3,14,54,-99999999999999.0, 8, 8, 3
4,120, 4
13,4123773425.531492,120824.62383696486, 3, 3, 3,-99999999999999.0,27, 8, 6
1057,22249764.684573125,99999999999999.0, 1, 1, 3,109193.68266920793, 2,17, 6
1096,662525594.29262,99999999999999.0, 3,14,54,-99999999999999.0, 8, 8, 3
4,151, 5
13,3897788452.7231317,99999999999999.0, 3, 3, 3,-99999999999999.0,27, 8, 6
1057,29502207.471171748,99999999999999.0, 1, 1, 3,-99999999999999.0, 2,17, 6
1096,488190266.4411819,99999999999999.0, 3,14,54,-99999999999999.0, 8, 8, 3
4,181, 6
13,3607780026.018307,120413.99199429, 3, 3, 3,-99999999999999.0,27, 8, 6
1057,84057454.73655273,99999999999999.0, 1, 1, 3,158283.91804657938, 2,15,60
1096,373655865.90841395,99999999999999.0, 3,14,54,-99999999999999.0, 8, 8, 3
4,212, 7
13,3392297344.2989264,99999999999999.0, 3, 3, 3,-99999999999999.0,27, 8, 6
1057,29101286.734590556,99999999999999.0, 1, 1, 3,-99999999999999.0, 2,15,60
1096,196290030.08106747,99999999999999.0, 3,14,54,-99999999999999.0, 8, 8, 3
4,243, 8
13,3460289600.884448,117852.65939613408, 3, 4, 3,-99999999999999.0,27, 8, 6
1057,101123257.47083145,99999999999999.0, 1, 1, 3,-99999999999999.0, 2,15,60
1096,156485480.16611803,99999999999999.0, 3,14,54,-99999999999999.0, 8, 8, 3
4,273, 9
13,3408791324.2145944,99999999999999.0, 3, 4, 3,-99999999999999.0,27, 8, 6
1057,91976568.58325103,99999999999999.0, 1, 1, 3,-99999999999999.0, 2,15,60
1096,126401752.13085765,99999999999999.0, 3,14,54,-99999999999999.0, 8, 8, 3
4,304,10
13,3931778991.5898356,99999999999999.0, 3, 4, 3,-99999999999999.0,27, 8, 6
1057,31885641.722118124,99999999999999.0, 1, 1, 3,-99999999999999.0, 2,15,60
1096,422770835.3996255,99999999999999.0, 3,14,54,-99999999999999.0, 8, 8, 3
4,334,11
13,4375180517.929123,99999999999999.0, 3, 4, 3,-99999999999999.0,27, 8, 6
1057,1577672.5928961372,99999999999999.0, 1, 1, 3,-99999999999999.0, 2,15,60
1096,818976973.7974155,99999999999999.0, 3,14,54,-99999999999999.0, 8, 8, 3
4,365,12
13,5307154185.013072,99999999999999.0, 3, 4, 3,-99999999999999.0,27, 8, 6
1057,0.0,99999999999999.0, 1, 1, 3,-99999999999999.0, 2,15,60
1096,1443831288.2325745,99999999999999.0, 3,14,54,-99999999999999.0, 8, 8, 3
End of Data
 Number of Records Written=          42
