Program Version,EnergyPlus, Version 22.2.0-e09063c5d2, YMD=2022.11.10 21:26
1,5,Environment Title[],Latitude[deg],Longitude[deg],Time Zone[],Elevation[m]
2,8,Day of Simulation[],Month[],Day of Month[],DST Indicator[1=yes 0=no],Hour[],StartMinute[],EndMinute[],DayType
3,5,Cumulative Day of Simulation[],Month[],Day of Month[],DST Indicator[1=yes 0=no],DayType  ! When Daily Report Variables Requested
4,2,Cumulative Days of Simulation[],Month[]  ! When Monthly Report Variables Requested
5,1,Cumulative Days of Simulation[] ! When Run Period Report Variables Requested
6,1,Calendar Year of Simulation[] ! When Annual Report Variables Requested
7,9,LIVING_UNIT1,Zone Outdoor Air Drybulb Temperature [C] !Monthly [Value,Min,Day,Hour,Minute,Max,Day,Hour,Minute]
8,9,ATTIC_UNIT1,Zone Outdoor Air Drybulb Temperature [C] !Monthly [Value,Min,Day,Hour,Minute,Max,Day,Hour,Minute]
463,9,WALL_LDF_1.UNIT1,Surface Inside Face Temperature [C] !Monthly [Value,Min,Day,Hour,Minute,Max,Day,Hour,Minute]
464,9,WALL_LDF_1.UNIT1,Surface Outside Face Temperature [C] !Monthly [Value,Min,Day,Hour,Minute,Max,Day,Hour,Minute]
465,9,WALL_SDR_1.UNIT1,Surface Inside Face Temperature [C] !Monthly [Value,Min,Day,Hour,Minute,Max,Day,Hour,Minute]
466,9,WALL_SDR_1.UNIT1,Surface Outside Face Temperature [C] !Monthly [Value,Min,Day,Hour,Minute,Max,Day,Hour,Minute]
467,9,WALL_LDB_1.UNIT1,Surface Inside Face Temperature [C] !Monthly [Value,Min,Day,Hour,Minute,Max,Day,Hour,Minute]
468,9,WALL_LDB_1.UNIT1,Surface Outside Face Temperature [C] !Monthly [Value,Min,Day,Hour,Minute,Max,Day,Hour,Minute]
469,9,WALL_SDL_1.UNIT1,Surface Inside Face Temperature [C] !Monthly [Value,Min,Day,Hour,Minute,Max,Day,Hour,Minute]
470,9,WALL_SDL_1.UNIT1,Surface Outside Face Temperature [C] !Monthly [Value,Min,Day,Hour,Minute,Max,Day,Hour,Minute]
471,9,WALL_LDF_2.UNIT1,Surface Inside Face Temperature [C] !Monthly [Value,Min,Day,Hour,Minute,Max,Day,Hour,Minute]
472,9,WALL_LDF_2.UNIT1,Surface Outside Face Temperature [C] !Monthly [Value,Min,Day,Hour,Minute,Max,Day,Hour,Minute]
473,9,WALL_SDR_2.UNIT1,Surface Inside Face Temperature [C] !Monthly [Value,Min,Day,Hour,Minute,Max,Day,Hour,Minute]
474,9,WALL_SDR_2.UNIT1,Surface Outside Face Temperature [C] !Monthly [Value,Min,Day,Hour,Minute,Max,Day,Hour,Minute]
475,9,WALL_LDB_2.UNIT1,Surface Inside Face Temperature [C] !Monthly [Value,Min,Day,Hour,Minute,Max,Day,Hour,Minute]
476,9,WALL_LDB_2.UNIT1,Surface Outside Face Temperature [C] !Monthly [Value,Min,Day,Hour,Minute,Max,Day,Hour,Minute]
477,9,WALL_SDL_2.UNIT1,Surface Inside Face Temperature [C] !Monthly [Value,Min,Day,Hour,Minute,Max,Day,Hour,Minute]
478,9,WALL_SDL_2.UNIT1,Surface Outside Face Temperature [C] !Monthly [Value,Min,Day,Hour,Minute,Max,Day,Hour,Minute]
479,9,INTER ZONE FLOOR 1,Surface Inside Face Temperature [C] !Monthly [Value,Min,Day,Hour,Minute,Max,Day,Hour,Minute]
480,9,INTER ZONE FLOOR 1,Surface Outside Face Temperature [C] !Monthly [Value,Min,Day,Hour,Minute,Max,Day,Hour,Minute]
481,9,FLOOR_UNIT1,Surface Inside Face Temperature [C] !Monthly [Value,Min,Day,Hour,Minute,Max,Day,Hour,Minute]
482,9,FLOOR_UNIT1,Surface Outside Face Temperature [C] !Monthly [Value,Min,Day,Hour,Minute,Max,Day,Hour,Minute]
483,9,CEILING_UNIT1,Surface Inside Face Temperature [C] !Monthly [Value,Min,Day,Hour,Minute,Max,Day,Hour,Minute]
484,9,CEILING_UNIT1,Surface Outside Face Temperature [C] !Monthly [Value,Min,Day,Hour,Minute,Max,Day,Hour,Minute]
485,9,INTERNALMASS_UNIT1,Surface Inside Face Temperature [C] !Monthly [Value,Min,Day,Hour,Minute,Max,Day,Hour,Minute]
486,9,INTERNALMASS_UNIT1,Surface Outside Face Temperature [C] !Monthly [Value,Min,Day,Hour,Minute,Max,Day,Hour,Minute]
487,9,DOOR_LDB_UNIT1,Surface Inside Face Temperature [C] !Monthly [Value,Min,Day,Hour,Minute,Max,Day,Hour,Minute]
488,9,DOOR_LDB_UNIT1,Surface Outside Face Temperature [C] !Monthly [Value,Min,Day,Hour,Minute,Max,Day,Hour,Minute]
489,9,WINDOW_LDF_1.UNIT1,Surface Inside Face Temperature [C] !Monthly [Value,Min,Day,Hour,Minute,Max,Day,Hour,Minute]
490,9,WINDOW_LDF_1.UNIT1,Surface Outside Face Temperature [C] !Monthly [Value,Min,Day,Hour,Minute,Max,Day,Hour,Minute]
491,9,WINDOW_LDB_1.UNIT1,Surface Inside Face Temperature [C] !Monthly [Value,Min,Day,Hour,Minute,Max,Day,Hour,Minute]
492,9,WINDOW_LDB_1.UNIT1,Surface Outside Face Temperature [C] !Monthly [Value,Min,Day,Hour,Minute,Max,Day,Hour,Minute]
493,9,WINDOW_SDR_1.UNIT1,Surface Inside Face Temperature [C] !Monthly [Value,Min,Day,Hour,Minute,Max,Day,Hour,Minute]
494,9,WINDOW_SDR_1.UNIT1,Surface Outside Face Temperature [C] !Monthly [Value,Min,Day,Hour,Minute,Max,Day,Hour,Minute]
495,9,WINDOW_SDL_1.UNIT1,Surface Inside Face Temperature [C] !Monthly [Value,Min,Day,Hour,Minute,Max,Day,Hour,Minute]
496,9,WINDOW_SDL_1.UNIT1,Surface Outside Face Temperature [C] !Monthly [Value,Min,Day,Hour,Minute,Max,Day,Hour,Minute]
497,9,WINDOW_LDF_2.UNIT1,Surface Inside Face Temperature [C] !Monthly [Value,Min,Day,Hour,Minute,Max,Day,Hour,Minute]
498,9,WINDOW_LDF_2.UNIT1,Surface Outside Face Temperature [C] !Monthly [Value,Min,Day,Hour,Minute,Max,Day,Hour,Minute]
499,9,WINDOW_LDB_2.UNIT1,Surface Inside Face Temperature [C] !Monthly [Value,Min,Day,Hour,Minute,Max,Day,Hour,Minute]
500,9,WINDOW_LDB_2.UNIT1,Surface Outside Face Temperature [C] !Monthly [Value,Min,Day,Hour,Minute,Max,Day,Hour,Minute]
501,9,WINDOW_SDR_2.UNIT1,Surface Inside Face Temperature [C] !Monthly [Value,Min,Day,Hour,Minute,Max,Day,Hour,Minute]
502,9,WINDOW_SDR_2.UNIT1,Surface Outside Face Temperature [C] !Monthly [Value,Min,Day,Hour,Minute,Max,Day,Hour,Minute]
503,9,WINDOW_SDL_2.UNIT1,Surface Inside Face Temperature [C] !Monthly [Value,Min,Day,Hour,Minute,Max,Day,Hour,Minute]
504,9,WINDOW_SDL_2.UNIT1,Surface Outside Face Temperature [C] !Monthly [Value,Min,Day,Hour,Minute,Max,Day,Hour,Minute]
505,9,ROOF_RIGHT_UNIT1,Surface Inside Face Temperature [C] !Monthly [Value,Min,Day,Hour,Minute,Max,Day,Hour,Minute]
506,9,ROOF_RIGHT_UNIT1,Surface Outside Face Temperature [C] !Monthly [Value,Min,Day,Hour,Minute,Max,Day,Hour,Minute]
507,9,ROOF_LEFT_UNIT1,Surface Inside Face Temperature [C] !Monthly [Value,Min,Day,Hour,Minute,Max,Day,Hour,Minute]
508,9,ROOF_LEFT_UNIT1,Surface Outside Face Temperature [C] !Monthly [Value,Min,Day,Hour,Minute,Max,Day,Hour,Minute]
509,9,iz-CEILING_UNIT1,Surface Inside Face Temperature [C] !Monthly [Value,Min,Day,Hour,Minute,Max,Day,Hour,Minute]
510,9,iz-CEILING_UNIT1,Surface Outside Face Temperature [C] !Monthly [Value,Min,Day,Hour,Minute,Max,Day,Hour,Minute]
511,9,ROOF_FRONT_UNIT1,Surface Inside Face Temperature [C] !Monthly [Value,Min,Day,Hour,Minute,Max,Day,Hour,Minute]
512,9,ROOF_FRONT_UNIT1,Surface Outside Face Temperature [C] !Monthly [Value,Min,Day,Hour,Minute,Max,Day,Hour,Minute]
513,9,ROOF_BACK_UNIT1,Surface Inside Face Temperature [C] !Monthly [Value,Min,Day,Hour,Minute,Max,Day,Hour,Minute]
514,9,ROOF_BACK_UNIT1,Surface Outside Face Temperature [C] !Monthly [Value,Min,Day,Hour,Minute,Max,Day,Hour,Minute]
515,9,LIVING_UNIT1,Zone Mean Air Temperature [C] !Monthly [Value,Min,Day,Hour,Minute,Max,Day,Hour,Minute]
516,9,ATTIC_UNIT1,Zone Mean Air Temperature [C] !Monthly [Value,Min,Day,Hour,Minute,Max,Day,Hour,Minute]
700,9,LIVING_UNIT1,Zone Air Temperature [C] !Monthly [Value,Min,Day,Hour,Minute,Max,Day,Hour,Minute]
763,9,ATTIC_UNIT1,Zone Air Temperature [C] !Monthly [Value,Min,Day,Hour,Minute,Max,Day,Hour,Minute]
1027,9,DX COOLING COIL_UNIT1,Cooling Coil Total Cooling Rate [W] !Monthly [Value,Min,Day,Hour,Minute,Max,Day,Hour,Minute]
1028,9,DX COOLING COIL_UNIT1,Cooling Coil Total Cooling Energy [J] !Monthly [Value,Min,Day,Hour,Minute,Max,Day,Hour,Minute]
1078,9,MAIN DX HEATING COIL_UNIT1,Heating Coil Heating Rate [W] !Monthly [Value,Min,Day,Hour,Minute,Max,Day,Hour,Minute]
1079,9,MAIN DX HEATING COIL_UNIT1,Heating Coil Heating Energy [J] !Monthly [Value,Min,Day,Hour,Minute,Max,Day,Hour,Minute]
1119,9,SUPP HEATING COIL_UNIT1,Heating Coil Heating Energy [J] !Monthly [Value,Min,Day,Hour,Minute,Max,Day,Hour,Minute]
1120,9,SUPP HEATING COIL_UNIT1,Heating Coil Heating Rate [W] !Monthly [Value,Min,Day,Hour,Minute,Max,Day,Hour,Minute]
13,9,Electricity:Facility [J] !Monthly [Value,Min,Day,Hour,Minute,Max,Day,Hour,Minute]
1057,9,Cooling:Electricity [J] !Monthly [Value,Min,Day,Hour,Minute,Max,Day,Hour,Minute]
1096,9,Heating:Electricity [J] !Monthly [Value,Min,Day,Hour,Minute,Max,Day,Hour,Minute]
End of Data Dictionary
1,PHOENIX SKY HARBOR INTL AP ANN HTG 99.6% CONDNS DB,  37.62,-122.40,  -8.00,   2.00
4,1,12
7,3.692898992377034,3.6928989923770335,21, 1, 3,3.6928989923770335,21, 1, 3
8,3.6734834666832836,3.673483466683284,21, 1, 3,3.673483466683284,21, 1, 3
463,19.233186689997613,19.166405562898017,21,15,60,19.37832744194313,21,22,60
464,2.220814469297064,2.216875789728681,21,16,24,2.228988810105108,21,23,33
465,19.227627092605974,19.16096536552003,21,15,60,19.372218624515796,21,22,60
466,2.2205023323112982,2.216571130784226,21,16,24,2.2286426900781495,21,23,33
467,19.245750764384187,19.178952696812402,21,15,60,19.39083355638737,21,22,60
468,2.321380010060924,2.317684201174106,21,16,24,2.329046204578972,21,23,33
469,19.234253029940415,19.167592052227842,21,15,60,19.378854760178,21,22,60
470,2.3207325908090426,2.317044620712096,21,16,24,2.328371623976558,21,23,33
471,19.24165354941668,19.174876030840725,21,15,60,19.38680447226536,21,22,60
472,2.3487618852456573,2.3451692865819678,21,16,24,2.356221171019949,21,23,33
473,19.23609446613877,19.169436351357344,21,15,60,19.38069613500479,21,22,60
474,2.3484772287336964,2.3448914310879796,21,16,24,2.3559056120380735,21,23,33
475,19.251558883094823,19.184764138821848,21,15,60,19.396648088390556,21,22,60
476,2.4091219987576182,2.4056809917818285,21,16,24,2.4162618537498304,21,23,33
477,19.24006185320947,19.173404215051995,21,15,60,19.384669947525964,21,22,60
478,2.4085134149270364,2.4050796907875367,21,16,24,2.4156280352756796,21,23,33
479,19.915774777240493,19.795161975553658,21, 4,60,20.16035203567194,21,21,60
480,19.915775122004394,19.79516629934786,21, 4,60,20.160346676007876,21,21,60
481,20.08506517279132,19.988896433765618,21, 4,60,20.279634362398475,21,21,60
482,20.727905621968148,20.727744533425998,21, 4,60,20.72823345614545,21,21,60
483,20.088522257979246,19.98616331785826,21, 4,60,20.29668259845102,21,21,60
484,5.117089180083502,5.105765991460633,21,18,21,5.132669459473107,21, 2, 9
485,20.418110512136582,20.335352948919642,21, 5,60,20.602535693841297,21,21,60
486,20.41811099111395,20.335355823242026,21, 5,60,20.602529439414983,21,21,60
487,16.846361420226792,16.75628045965305,21, 4,60,17.023329294337284,21,21,60
488,4.535580278272489,4.516100800484013,21, 5, 6,4.574263391293688,21,22, 3
489,15.357060974507384,15.273976858656397,21, 4,60,15.518094567885896,21,21,60
490,5.824294289969296,5.796417884168989,21, 4,60,5.878454902011754,21,21,60
491,15.337012501064871,15.254297517645568,21, 4,60,15.497412826284517,21,21,60
492,5.753714233323259,5.726690085928681,21, 4,60,5.806250870359918,21,21,60
493,15.35889095824762,15.276214379336011,21, 4,60,15.519372318814249,21,21,60
494,5.841220761572752,5.813488125030233,21, 4,60,5.895180422988005,21,21,60
495,15.327916970013368,15.245529432768421,21, 4,60,15.48783734192034,21,21,60
496,5.750809644501314,5.7238880402299515,21, 4,60,5.803196829308149,21,21,60
497,15.320303792237434,15.237617687249326,21, 4,60,15.48056593993897,21,21,60
498,5.716986777090849,5.690230487089934,21, 4,60,5.768978597618002,21,21,60
499,15.308437939547339,15.226029119343877,21, 4,60,15.468244276284622,21,21,60
500,5.67028893529713,5.644126366426349,21, 4,60,5.721155746932027,21,21,60
501,15.321895328285876,15.239614225076593,21, 4,60,15.48160905125087,21,21,60
502,5.733217932998209,5.706597897234587,21, 4,60,5.785020233938042,21,21,60
503,15.299375142125173,15.217292650565355,21, 4,60,15.458703144988931,21,21,60
504,5.667476619439729,5.641413556447162,21, 4,60,5.718198295955631,21,21,60
505,4.614116632158354,4.6054363893538595,21,19,36,4.6245177443159875,21, 4,12
506,1.6100538621027498,1.6095970924292269,21,20,15,1.6105989202335302,21, 4,57
507,4.62056404130989,4.611888917062085,21,19,36,4.63095593211429,21, 4,12
508,1.6803560754767786,1.6799140963482229,21,20,15,1.6808833497951308,21, 4,57
509,5.117089180083502,5.105765991460633,21,18,21,5.132669459473107,21, 2, 9
510,20.088522257979246,19.98616331785826,21, 4,60,20.29668259845102,21,21,60
511,4.5345509342698485,4.524403667381395,21,18,51,4.548237379912037,21, 2,48
512,-2.1905313561042097,-2.190876153667176,21,19,24,-2.190068386347878,21, 3,30
513,4.54527940632722,4.535133512976294,21,18,51,4.558964005271964,21, 2,48
514,-1.9851188801332453,-1.985451902405219,21,19,24,-1.9846716475067336,21, 3,27
515,22.2200126971287,22.22001259088594,21,21,60,22.220012763751917,21,18,18
516,4.767037278154956,4.756940508020965,21,18,42,4.780626018798488,21, 2,33
700,22.2200126971287,22.22001259088594,21,21,60,22.220012763751917,21,18,18
763,4.767037278154956,4.756940508020965,21,18,42,4.780626018798488,21, 2,33
1027,0.0,0.0,21, 1, 3,0.0,21, 1, 3
1028,0.0,0.0,21, 1, 3,0.0,21, 1, 3
1078,3700.1678545723967,3386.080161676516,21,21,60,3903.2895201966685,21,14,45
1079,319694502.63505507,609494.429101773,21,21,60,702592.1136354003,21,14,45
1119,0.0,0.0,21, 1, 3,0.0,21, 1, 3
1120,0.0,0.0,21, 1, 3,0.0,21, 1, 3
13,339659878.488611,578247.6505791113,21, 4, 3,1739835.592659954,21,19, 3
1057,0.0,0.0,21, 1, 3,0.0,21, 1, 3
1096,197961896.07188192,383482.7253902401,21,21,60,430988.9197061077,21,14,45
1,PHOENIX SKY HARBOR INTL AP ANN CLG .4% CONDNS DB=>MWB,  37.62,-122.40,  -8.00,   2.00
4,1, 7
7,36.95789899237704,31.39289899237703,21, 5,60,43.392898992377035,21,14,60
8,36.93848346668327,31.373483466683282,21, 5,60,43.37348346668328,21,14,60
463,26.939652198575455,25.605676204916154,21, 6,36,28.450733021937346,21,16,33
464,39.26106788492074,29.262440909189714,21, 6, 3,55.656620920921256,21,13,54
465,27.061332535616852,25.60378827017754,21, 6,36,28.188022872971995,21,17,24
466,41.23407336483619,29.14825562633375,21, 6, 3,60.872701550120034,21,10, 9
467,26.84939807729631,25.60028611159572,21, 6,36,28.142292403632823,21,18,24
468,37.726150108864914,29.14811267058852,21, 6, 3,46.80284249681803,21,15, 6
469,27.03980246967733,25.611078398256616,21, 6,36,29.07186215210899,21,18,24
470,40.98373230913493,29.262674545902282,21, 6, 3,65.47031193656618,21,16,51
471,26.924171146875253,25.6182566823285,21, 6,36,28.381135428430625,21,16,36
472,38.99784371204041,29.525985993938654,21, 6, 3,54.20257023245362,21,13,57
473,27.043215817914582,25.612500183509503,21, 6,36,28.16785625738077,21,17,27
474,40.93476294243242,29.330638807344087,21, 6, 3,59.28849260609613,21,10,12
475,26.8450264073514,25.608765922308393,21, 6,36,28.126655970567903,21,18,24
476,37.654164199767685,29.33049877681369,21, 6, 3,46.514476870137365,21,15, 6
477,27.01453118887106,25.623315902211232,21, 6,36,28.952243219925638,21,18,24
478,40.552003680520116,29.526171420250748,21, 6, 3,63.14996812464234,21,16,48
479,26.507962235735118,25.292272992061697,21, 5,60,27.71169018314821,21,17,12
480,26.50796234038806,25.292274389007048,21, 5,60,27.711690173982923,21,17,12
481,25.82834397186558,24.788986653732362,21, 5,60,26.86278281730758,21,17, 9
482,22.56854948882938,22.566792143002502,21, 5,60,22.570298538617692,21,17,21
483,26.67411528900269,25.49913854642124,21, 5,60,27.836159973291494,21,18,18
484,37.11755936381068,31.51669758309948,21, 7,45,43.0006865343906,21,17,45
485,26.164082120726334,25.2913058690697,21, 5,60,27.006450926199108,21,18,15
486,26.164082110814874,25.291305738072463,21, 5,60,27.006450926176214,21,18,15
487,28.528857460919316,25.88316043579234,21, 5,60,31.06343417710692,21,16, 6
488,37.347924683041896,28.38120272644214,21, 6, 3,46.625739885439216,21,15, 6
489,29.836393690355077,26.234224600098287,21, 5,60,35.124457332672364,21,13,51
490,34.169428556972704,28.356297150177284,21, 5,60,41.71541146257624,21,14,21
491,29.35595903464261,26.191450206818956,21, 5,60,32.5092554090553,21,15,30
492,33.692391868745396,28.232665321409627,21, 5,60,39.78967356642204,21,15, 6
493,30.484570968267565,26.20144471271101,21, 5,60,36.795399672657766,21, 9,60
494,34.64664087894007,28.252204099559776,21, 5,60,40.45646598451896,21,11, 6
495,30.484793113820157,26.237254055688368,21, 5,60,38.8707255127365,21,16,51
496,34.69848556260755,28.357029109875157,21, 5,60,44.747491111045065,21,16,24
497,29.900685235574105,26.309729678872372,21, 5,60,35.14412608992052,21,13,51
498,34.36462063749933,28.57533589518846,21, 5,60,41.801360465637,21,14,30
499,29.402820827101934,26.240661722770426,21, 5,60,32.557744111705574,21,15,30
500,33.83531874030265,28.375236382345747,21, 5,60,39.94333696112176,21,15, 6
501,30.517185093235877,26.250323209427165,21, 5,60,36.75061816983356,21, 9,60
502,34.74423339164869,28.393844267119277,21, 5,60,40.37833325601002,21,11,12
503,30.537331786844117,26.3127348186174,21, 5,60,38.82784770324611,21,16,51
504,34.855407760471785,28.57601298689491,21, 5,60,44.61933508004279,21,16,21
505,37.49263468259263,32.40281175503994,21, 7,45,42.70173784638781,21,18,42
506,41.16093907201961,29.654014556168093,21, 6, 3,58.89731648877955,21,10,12
507,37.454080939261495,32.072299549004384,21, 8,30,43.60795906477577,21,18,45
508,40.69408069813221,29.845572530022736,21, 6, 3,62.6620267317599,21,16,48
509,37.11755936381068,31.51669758309948,21, 7,45,43.0006865343906,21,17,45
510,26.67411528900269,25.49913854642124,21, 5,60,27.836159973291494,21,18,18
511,37.43501152953902,31.531617126149612,21, 7,42,43.62901697381683,21,17,27
512,42.461050730057785,27.022792087414516,21, 6, 3,67.92040850203952,21,13,48
513,37.41993624918654,31.569106323989722,21, 7,33,43.64354867625334,21,17,33
514,42.108553848572896,26.455301974767714,21, 6, 6,64.99552617311203,21,13,60
515,23.880139601696282,23.87977150813147,21,18,30,23.88091141609565,21,19,12
516,37.24369368934251,31.697091698780774,21, 7,39,43.12158418876322,21,17,33
700,23.880139601696282,23.87977150813147,21,18,30,23.88091141609565,21,19,12
763,37.24369368934251,31.697091698780774,21, 7,39,43.12158418876322,21,17,33
1027,4666.2121642314705,2326.0759859682357,21, 5,60,7159.340110107436,21,17, 6
1028,403160730.9895991,418693.67747428245,21, 5,60,1288681.2198193385,21,17, 6
1078,0.0,0.0,21, 1, 3,0.0,21, 1, 3
1079,0.0,0.0,21, 1, 3,0.0,21, 1, 3
1119,0.0,0.0,21, 1, 3,0.0,21, 1, 3
1120,0.0,0.0,21, 1, 3,0.0,21, 1, 3
13,242091969.713331,255825.18090469274,21, 4,60,1638755.9552552043,21,20,24
1057,120259368.59545043,112870.32860603908,21, 5,60,410672.2259063843,21,16, 6
1096,0.0,0.0,21, 1, 3,0.0,21, 1, 3
1,ANNUAL,  37.62,-122.40,  -8.00,   2.00
4,31, 1
7,9.591524664420026,2.1928989923770335,24, 6,60,16.69289899237703,19,13,60
8,9.572109138726308,2.173483466683284,24, 6,60,16.673483466683283,19,13,60
463,21.023289338376227,19.440868926352707,24, 8,27,23.373373214332695, 1,17, 3
464,14.870141801769973,1.450473160554833,24, 8, 3,54.843224107307314,12,13, 3
465,20.794197698753763,19.43021631695374,24, 8,27,22.178809646147876, 3,16,48
466,11.634621655274584,1.4528360960021351,24, 8, 3,38.332764226451914, 1,10,30
467,20.70223984570743,19.43902964737215,24, 8,24,21.98538789360888, 3,17, 6
468,10.14304551483282,1.3918343027298348,24, 7,57,20.8842622250259, 3,14,60
469,20.786149054580974,19.4339940758167,24, 8,24,22.44210025942946,29,18,24
470,11.49648734704097,1.385924172044092,24, 7,57,40.17758396828726, 1,16, 3
471,21.000490630773903,19.443942673795927,24, 8,27,23.343243586944823, 1,17, 3
472,14.562279397373038,1.467469777005149,24, 8, 3,54.819498808891154,12,12,60
473,20.782385262131665,19.433577531595684,24, 8,27,22.13795857489331, 3,16,48
474,11.471769780027026,1.46839811722089,24, 8, 3,38.32128519579851, 1,10,30
475,20.697400763302745,19.442807446245506,24, 8,24,21.973186915413198, 3,17, 3
476,10.075671648702956,1.4118039983054615,24, 7,60,20.828339927421418, 3,14,60
477,20.774621890668577,19.437565676668363,24, 8,27,22.37116327664353,29,18,24
478,11.338368481049054,1.4090648729133572,24, 7,60,40.155247201981155, 1,15,60
479,21.321078619707702,20.04812551220326,24, 6,60,23.169146432947937,29,16,30
480,21.321211512676566,20.048126726433956,24, 6,60,23.169147893352893,29,16,30
481,21.15444290409145,20.14961949703986,24, 6,60,22.664915930448434,29,16,30
482,20.55000994620787,20.54834023251906,24, 6,60,20.552578899996945,29,16,30
483,21.26838674952506,20.273401379870975,24, 7,60,22.63299894794537, 3,16,18
484,12.585434714522878,6.908176105821337,24, 9,21,18.15381761228869, 3,16,45
485,21.483441359736066,20.617254622328456,24, 7,60,22.60242968214757, 1,16,30
486,21.483523971589815,20.61725452014169,24, 7,60,22.602429736478452, 1,16,30
487,19.204800865221877,16.796928249857825,24, 7,33,22.680329523423715, 3,15,15
488,11.735425236002582,3.7858019634664717,24, 7, 6,22.195844830466648, 3,14,54
489,19.601820074643854,15.068885925678615,24, 6,60,31.071352917627394,12,13, 6
490,12.410226910823656,4.771010700442218,24, 6,60,24.00948859015716, 2,13,51
491,18.13260850282733,15.068429479311135,24, 6,60,21.613373001013883, 3,14,42
492,11.194404916640979,4.75318167243023,24, 6,60,17.53183457960256,19,13,60
493,18.555300640720194,15.064828130432716,24, 6,60,25.975628246448878,27,10,30
494,11.564512090956391,4.76460352695409,24, 6,60,18.003649523798117, 3,10,60
495,18.55361640562845,15.065803854791625,24, 6,60,27.619439857055227,29,16,30
496,11.518647227489875,4.7700868946491255,24, 6,60,20.984792305840244, 1,15,60
497,19.557019223888595,15.010629166392619,24, 6,60,31.058962064309753,12,12,60
498,12.2804139130817,4.601624970079001,24, 6,60,23.894868196724758, 2,13,51
499,18.103037940736204,15.026969279744947,24, 6,60,21.607154159752213, 3,14,48
500,11.109451747188828,4.632369396975207,24, 6,60,17.46729347839539,19,13,60
501,18.51982943522107,15.023206920371194,24, 6,60,25.87635659583799,27,10,30
502,11.463549329604655,4.6433188171487245,24, 6,60,17.834534818253303, 1,10,30
503,18.517762454757964,15.007565993494381,24, 6,60,27.476781265634145,29,16,30
504,11.416183348749156,4.600753902909503,24, 6,60,20.974925589186796, 1,15,60
505,12.342972252011258,6.958759989894553,27, 8,48,17.26953552369964, 3,17,36
506,11.046384369026631,0.6058454350744379,24, 8, 9,37.82930565299941, 1,10,30
507,12.330780809899776,6.811718177738749,24, 9,48,17.703468300011327, 3,17,36
508,10.919675714063619,0.5465016490573799,24, 8, 3,39.80661155987039, 1,15,60
509,12.585434714522878,6.908176105821337,24, 9,21,18.15381761228869, 3,16,45
510,21.26838674952506,20.273401379870975,24, 7,60,22.63299894794537, 3,16,18
511,12.414124743951673,6.328960292729447,24, 9, 6,18.576763435282892, 3,16,27
512,11.353724673821848,-5.494966050150873,27, 6, 6,44.72038810792229,12,13, 3
513,12.268071397992252,6.2078368035550815,24, 9,24,18.019184499192704, 3,16,42
514,8.534753756886953,-5.500479341705033,27, 6, 6,23.02821854594418,21,12,30
515,22.220034582132303,22.219799834810093, 3,14,54,22.249743229030763, 3,15,30
516,12.161254791563566,6.526797921687291,24, 9,18,17.846817645480996, 3,16,33
700,22.220034582132303,22.219799834810093, 3,14,54,22.249743229030763, 3,15,30
763,12.161254791563566,6.526797921687291,24, 9,18,17.846817645480996, 3,16,33
1027,0.0,0.0, 1, 1, 3,0.0, 1, 1, 3
1028,0.0,0.0, 1, 1, 3,0.0, 1, 1, 3
1078,1863.8707624073188,0.0, 3,14,54,3808.934097392861,24, 6,60
1079,4992191450.031761,0.0, 3,14,54,685608.137530715,24, 6,60
1119,0.0,0.0, 1, 1, 3,0.0, 1, 1, 3
1120,0.0,0.0, 1, 1, 3,0.0, 1, 1, 3
13,5792126429.434002,163127.10284771345, 1,15,60,1590548.5055508632,27, 8, 6
1057,0.0,0.0, 1, 1, 3,0.0, 1, 1, 3
1096,1830913166.06912,0.0, 3,14,54,372807.99535425805, 8, 8, 3
4,59, 2
7,11.282229349519886,4.992898992377033,26, 7,60,22.19289899237703,14,13,60
8,11.26281382382614,4.973483466683284,26, 7,60,22.173483466683283,14,13,60
463,21.578358372432092,19.90937231166228, 1, 7,51,24.93742092202654,14,17,36
464,17.634748973839624,3.6472441361852868,26, 7,48,58.76016069569249,14,13,60
465,21.33333502380121,19.8910585752379, 1, 7,36,23.804709326922477,14,17,51
466,14.183506556054253,3.718373466703781,26, 7,48,45.54598185021621,14,10,33
467,21.187097627722977,19.900454962798563, 1, 7,33,23.496146654793918,15,19,27
468,11.973808783297887,3.7066122583091676, 4, 8, 3,27.496170198466345,17,14, 6
469,21.314899810614293,19.90194032857048, 1, 7,42,24.46623251571929,15,19, 3
470,13.902976569898453,3.645372293444735,26, 7,48,49.31929670876984,15,16,60
471,21.548738626628147,19.910932566862694, 1, 7,48,24.853749675491116,14,17,36
472,17.238939170352705,3.7324281092190184, 4, 8, 3,57.6955316852545,14,13,60
473,21.317077373822865,19.894497386001674, 1, 7,36,23.775955049777348,14,17,54
474,13.969117801129507,3.724046632257784, 4, 8, 3,44.500923535186594,14,10,33
475,21.18084430869016,19.90403189607688, 1, 7,33,23.485175801951563,15,19,30
476,11.890527753263509,3.698951624285528, 4, 8, 3,27.477724011414285,17,14, 6
477,21.294797676822185,19.90396578981983, 1, 7,42,24.410950203932725,15,19, 3
478,13.63713113272016,3.7028022332803885, 4, 7,60,48.119990837491684,15,16,60
479,21.812357968444882,20.385480477519444, 1, 5,60,24.928356382403763,14,16,30
480,21.81235796232773,20.385480789076357, 1, 5,60,24.928355918657875,14,16,30
481,21.55383523359057,20.42751741189918, 1, 5,60,24.09200686254077,14,16,30
482,20.590639583219335,20.588368955298208, 1, 1, 3,20.59494166571373,14,16,36
483,21.70922343039887,20.53609427988484, 1, 5,60,24.445375437632663,14,17,27
484,14.455831955019454,9.062459368252732, 4, 9,12,22.125987456333505,15,17,51
485,21.89098305069681,20.861076673551036, 1, 6,60,24.130803110239277,14,17,30
486,21.890983057030805,20.861076747008607, 1, 6,60,24.130803234159522,14,17,30
487,19.890933117128775,17.406177675800883,26, 7,48,24.74354499554181,14,14,48
488,13.441419264420299,5.663093671757726,26, 7,48,28.385924133897973,17,14, 3
489,20.72113188553232,15.96889967007121,26, 7,48,33.73518980363906,14,13,60
490,14.035332232263912,6.804051265816327,26, 7,48,30.515310598677104,14,13,60
491,18.910777157867294,15.960984494228,26, 7,48,24.087287208380985,14,14,24
492,12.533756360310141,6.763720997739085,26, 7,48,21.5754471388247,14,13,60
493,19.536651312375014,15.95932378645091,26, 7,48,28.634407939346204,18,10,30
494,13.098291159231033,6.779353645051913,26, 7,48,22.58051200730381,14,11,15
495,19.60121306159712,15.9673093541237,26, 7,48,31.750392267477196,15,16,54
496,13.041631430393414,6.803540791752766,26, 7,48,28.401915025790743,15,16,60
497,20.676474115104806,15.93365132575093,26, 7,48,33.67163501504166,14,13,60
498,13.904304734710857,6.701089960850197,26, 7,48,30.308038196135954,14,13,60
499,18.88355818420231,15.93463720691625,26, 7,48,24.091551323731323,14,14,24
500,12.456298988908289,6.686704128150268,26, 7,48,21.59154821630011,14,13,60
501,19.503227288996953,15.932774880272518,26, 7,48,28.532891317784333,18,10,30
502,13.003370208671631,6.701745935528606,26, 7,48,22.359548764306567,14,11,18
503,19.56229136366577,15.932070174602643,26, 7,48,31.683949323120203,15,16,54
504,12.929454111811916,6.700605109587855,26, 7,48,28.19279183741571,15,16,60
505,14.273722999073343,9.164453182522639, 1, 8,30,20.690216960273634,15,19,33
506,13.591524087606238,2.9718702091662412, 4, 8, 3,43.728718069500175,14,10,33
507,14.242073623241042,9.104251624604949, 4, 9,48,21.50233644990935,15,19,15
508,13.25077422087133,2.94293652774635, 4, 7,60,47.517333736857594,15,16,60
509,14.455831955019454,9.062459368252732, 4, 9,12,22.125987456333505,15,17,51
510,21.70922343039887,20.53609427988484, 1, 5,60,24.445375437632663,14,17,27
511,14.364178337569172,8.529136254500237, 4, 8,60,22.923193403869302,14,16,12
512,14.528955145509913,-2.7210815199648692, 4, 8, 6,54.89776326597031,14,13,60
513,14.200835144699026,8.458829047090433, 4, 9,12,22.246391640586,14,16,27
514,11.27057150115211,-2.9875846823366654, 4, 8, 6,36.9001532463044,17,14,15
515,22.27873159165754,22.219323414439014,10,16,33,23.880000829010868,14,15,39
516,14.010830452746418,8.722487536879736, 4, 9,12,21.97520977473117,15,17,48
700,22.27873159165754,22.219323414439014,10,16,33,23.880000829010868,14,15,39
763,14.010830452746418,8.722487536879736, 4, 9,12,21.97520977473117,15,17,48
1027,1.9849245376460645,0.0, 1, 1, 3,567.1023782639327,15,17, 6
1028,4801929.441473358,0.0, 1, 1, 3,102078.42808750788,15,17, 6
1078,1347.8907453711172,0.0,10,16,33,2963.7475905099545,26, 7,57
1079,3260817291.201805,0.0,10,16,33,533474.5662917919,26, 7,57
1119,0.0,0.0, 1, 1, 3,0.0, 1, 1, 3
1120,0.0,0.0, 1, 1, 3,0.0, 1, 1, 3
13,4587298842.109448,155801.34896619403,16, 1, 3,-99999999999999.0,27, 8, 6
1057,1119403.842641344,99999999999999.0, 1, 1, 3,23890.876426497918,15,17, 6
1096,1102710441.7369275,99999999999999.0, 3,14,54,-99999999999999.0, 8, 8, 3
4,90, 3
7,12.65232103538778,4.392898992377033,23, 6, 3,23.892898992377035,12,16,12
8,12.632905509694078,4.373483466683283,23, 6, 3,23.873483466683286,12,16,12
463,21.917129862741355,19.753088344300103,23, 7,57,25.70265059689156,12,18,12
464,18.387252661358165,3.3432811328054886,23, 6, 3,56.529216282415746,12,13,60
465,21.774908282376902,19.74519538201427,23, 7,45,24.695911355225462,12,18,45
466,16.35766785819749,3.395204931734503,23, 6, 6,52.55182538680703,31, 9,30
467,21.58951174980595,19.746841309280867,23, 7,54,24.468217113806336,12,19, 6
468,13.654800581552074,3.39509090622832,23, 6, 6,27.8865881816073,13,15, 6
469,21.730702801518007,19.753387293648366,23, 7,57,25.556934163038918,12,19, 9
470,15.787509751430562,3.343674401808758,23, 6, 3,56.50929932931544,12,16,60
471,21.885362470336613,19.75574728830875,23, 7,57,25.612433186362473,12,18,18
472,17.96098129275963,3.44431006880148,23, 6, 3,55.4289041269032,12,13,60
473,21.752259090297308,19.74794028613691,23, 7,45,24.649172653913833,12,18,48
474,16.062142481067795,3.4615299449129395,23, 6, 3,52.19944518385152,31, 9,30
475,21.579570405288756,19.749953614398496,23, 7,54,24.452245138813737,12,19, 6
476,13.525001598802497,3.4614653975714145,23, 6, 3,27.35528252850765,13,15, 6
477,21.7027139170089,19.753963491375533,23, 7,57,25.50151298242519,12,19, 9
478,15.414593231029823,3.4444284624801487,23, 6, 3,55.49031440405861,12,16,60